 Variables = X, Y, T
 Zone I=          41 J=          31
